% Model:              Grotthus_multi_3.5a_w.mph
% Version:            COMSOL 5.2.0.220
% Date:               Jun 7 2016, 17:29
% Dimension:          2
% Nodes:              100
% Expressions:        1
% Description:        Dependent variable wH
% Length unit:        m
% x                       y                        wH (1)
-1.0E-4                   0                        0.11260923259199357
-1.0E-4                   2.0202020202020203E-5    0.11260945030260727
-1.0E-4                   4.0404040404040405E-5    0.11261010723582976
-1.0E-4                   6.060606060606061E-5     0.11261121354969336
-1.0E-4                   8.080808080808081E-5     0.11261278728321707
-1.0E-4                   1.0101010101010101E-4    0.1126148544952214
-1.0E-4                   1.2121212121212122E-4    0.11261744889365738
-1.0E-4                   1.414141414141414E-4     0.11262061478142349
-1.0E-4                   1.6161616161616162E-4    0.11262440597903428
-1.0E-4                   1.8181818181818183E-4    0.11262888912807881
-1.0E-4                   2.0202020202020202E-4    0.11263414487378876
-1.0E-4                   2.2222222222222223E-4    0.11264027091567476
-1.0E-4                   2.4242424242424245E-4    0.11264738482011968
-1.0E-4                   2.6262626262626266E-4    0.11265562822137966
-1.0E-4                   2.828282828282828E-4     0.1126651719962568
-1.0E-4                   3.0303030303030303E-4    0.11267622318220043
-1.0E-4                   3.2323232323232324E-4    0.11268903310934991
-1.0E-4                   3.4343434343434346E-4    0.11270390823513587
-1.0E-4                   3.6363636363636367E-4    0.11272122266674431
-1.0E-4                   3.8383838383838383E-4    0.11274143137041527
-1.0E-4                   4.0404040404040404E-4    0.11276508133420389
-1.0E-4                   4.2424242424242425E-4    0.11279280593443171
-1.0E-4                   4.4444444444444447E-4    0.1128252902774339
-1.0E-4                   4.646464646464647E-4     0.11286316558829053
-1.0E-4                   4.848484848484849E-4     0.11290682043770356
-1.0E-4                   5.05050505050505E-4      0.11295615527181486
-1.0E-4                   5.252525252525253E-4     0.11301054990469026
-1.0E-4                   5.454545454545455E-4     0.11306888867562555
-1.0E-4                   5.656565656565656E-4     0.11313008679628292
-1.0E-4                   5.858585858585859E-4     0.11319319573152901
-1.0E-4                   6.060606060606061E-4     0.11325756546256409
-1.0E-4                   6.262626262626263E-4     0.11332278090844161
-1.0E-4                   6.464646464646465E-4     0.1133885986015826
-1.0E-4                   6.666666666666666E-4     0.11345488359573046
-1.0E-4                   6.868686868686869E-4     0.11352156576130445
-1.0E-4                   7.070707070707071E-4     0.11358861234941138
-1.0E-4                   7.272727272727273E-4     0.1136560116443657
-1.0E-4                   7.474747474747475E-4     0.11372376351616513
-1.0E-4                   7.676767676767677E-4     0.11379187408764158
-1.0E-4                   7.878787878787879E-4     0.11386035278501708
-1.0E-4                   8.080808080808081E-4     0.11392921076061675
-1.0E-4                   8.282828282828283E-4     0.1139984600923686
-1.0E-4                   8.484848484848485E-4     0.11406811341212345
-1.0E-4                   8.686868686868687E-4     0.11413818377131478
-1.0E-4                   8.888888888888889E-4     0.11420868463365978
-1.0E-4                   9.090909090909091E-4     0.11427962993267214
-1.0E-4                   9.292929292929294E-4     0.11435103416200212
-1.0E-4                   9.494949494949495E-4     0.1144229124809389
-1.0E-4                   9.696969696969698E-4     0.1144952808261372
-1.0E-4                   9.8989898989899E-4       0.11456815602508728
-1.0E-4                   0.00101010101010101      0.11464155591244812
-1.0E-4                   0.0010303030303030303    0.11471549944545471
-1.0E-4                   0.0010505050505050506    0.11479000682318645
-1.0E-4                   0.0010707070707070708    0.11486509960988826
-1.0E-4                   0.001090909090909091     0.1149408008638506
-1.0E-4                   0.0011111111111111111    0.11501713527507183
-1.0E-4                   0.0011313131313131313    0.11509412930876915
-1.0E-4                   0.0011515151515151516    0.11517181137166507
-1.0E-4                   0.0011717171717171718    0.11525021197887605
-1.0E-4                   0.001191919191919192     0.11532936395848185
-1.0E-4                   0.0012121212121212121    0.11540930266080777
-1.0E-4                   0.0012323232323232323    0.11549006620024273
-1.0E-4                   0.0012525252525252527    0.11557169570740776
-1.0E-4                   0.0012727272727272728    0.11565423557136986
-1.0E-4                   0.001292929292929293     0.11573773360491181
-1.0E-4                   0.0013131313131313131    0.11582224097484324
-1.0E-4                   0.0013333333333333333    0.11590781154933037
-1.0E-4                   0.0013535353535353537    0.11599449992567042
-1.0E-4                   0.0013737373737373738    0.11608235661340698
-1.0E-4                   0.001393939393939394     0.11617141744292728
-1.0E-4                   0.0014141414141414141    0.1162616818738928
-1.0E-4                   0.0014343434343434343    0.1163530724689926
-1.0E-4                   0.0014545454545454547    0.11644536856971746
-1.0E-4                   0.0014747474747474748    0.11653812186681427
-1.0E-4                   0.001494949494949495     0.11663060533429181
-1.0E-4                   0.0015151515151515152    0.11672187493261424
-1.0E-4                   0.0015353535353535353    0.11681099601562413
-1.0E-4                   0.0015555555555555557    0.11689722548983775
-1.0E-4                   0.0015757575757575758    0.11698010708383919
-1.0E-4                   0.001595959595959596     0.11705944261587427
-1.0E-4                   0.0016161616161616162    0.11713515398472274
-1.0E-4                   0.0016363636363636363    0.11720722651547216
-1.0E-4                   0.0016565656565656567    0.11727565622151108
-1.0E-4                   0.0016767676767676769    0.11734043077591652
-1.0E-4                   0.001696969696969697     0.11740152985712901
-1.0E-4                   0.0017171717171717172    0.11745892218674918
-1.0E-4                   0.0017373737373737373    0.11751257012925344
-1.0E-4                   0.0017575757575757577    0.11756243292768795
-1.0E-4                   0.0017777777777777779    0.1176084688060127
-1.0E-4                   0.001797979797979798     0.11765063747785932
-1.0E-4                   0.0018181818181818182    0.11768890121786045
-1.0E-4                   0.0018383838383838383    0.11772322573054446
-1.0E-4                   0.0018585858585858587    0.11775358059088321
-1.0E-4                   0.0018787878787878789    0.11777993948749056
-1.0E-4                   0.001898989898989899     0.11780227953366271
-1.0E-4                   0.0019191919191919192    0.11782058261856264
-1.0E-4                   0.0019393939393939396    0.11783483318649648
-1.0E-4                   0.0019595959595959597    0.11784501986100462
-1.0E-4                   0.00197979797979798      0.11785113525714155
-1.0E-4                   0.002                    0.11785317424734995
